# vtk DataFile Version 1.0
PlaneStress Mesh SYS807
ASCII
DATASET UNSTRUCTURED_GRID
POINTS 108 float
0.8838834765 0.8838834765 0.0
0.0 1.25 0.0
10.0 10.0 0.0
0.0 10.0 0.0
1.25 0.0 0.0
10.0 0.0 0.0
1.792475408 0.3936180987 0.0
1.728530661 0.7782780025 0.0
1.624189806 1.142990169 0.0
2.449127443 0.5757789708 0.0
2.4083364 1.143186977 0.0
2.330283953 1.692171826 0.0
3.204187677 0.7856590603 0.0
3.190568181 1.563628588 0.0
3.143331186 2.324947428 0.0
4.024367278 1.000034694 0.0
4.022266179 1.993253186 0.0
3.99061561 2.971823822 0.0
4.878057059 1.214278372 0.0
4.876190712 2.422727546 0.0
4.849044842 3.618645899 0.0
5.73175512 1.428528325 0.0
5.73013147 2.852210103 0.0
5.707482064 4.265469998 0.0
6.585461461 1.642784556 0.0
6.584088454 3.281700874 0.0
6.565927274 4.912296123 0.0
7.439176082 1.857047071 0.0
7.438061665 3.711199874 0.0
7.424380474 5.559124276 0.0
8.292898984 2.071315872 0.0
8.292051103 4.140707118 0.0
8.282841663 6.205954464 0.0
9.146540132 2.285591231 0.0
9.145996908 4.570222914 0.0
9.141280829 6.852786806 0.0
10.0 7.5 0.0
10.0 5.0 0.0
10.0 2.5 0.0
1.811768335 0.0 0.0
2.448658408 0.0 0.0
3.180440941 0.0 0.0
3.993513031 0.0 0.0
4.85167767 0.0 0.0
5.709842309 0.0 0.0
6.568006947 0.0 0.0
7.426171586 0.0 0.0
8.284336225 0.0 0.0
9.142379863 0.0 0.0
1.225677327 0.2453876321 0.0
1.153655856 0.4812256913 0.0
1.038472415 0.6957550173 0.0
9.132850706 9.132850706 0.0
8.266207799 8.266207799 0.0
7.399564893 7.399564893 0.0
6.532921986 6.532921986 0.0
5.66627908 5.66627908 0.0
4.799636173 4.799636173 0.0
3.932993267 3.932993267 0.0
3.066350361 3.066350361 0.0
2.218709885 2.218709885 0.0
1.483051776 1.483051776 0.0
1.140488995 1.625721924 0.0
0.7726983393 1.730559593 0.0
0.3906461166 1.792745591 0.0
1.689831868 2.33144854 0.0
1.137865478 2.40971841 0.0
0.5728936798 2.449044012 0.0
2.322803018 3.144132202 0.0
1.558642803 3.191322807 0.0
0.7829014948 3.203796494 0.0
2.969933875 3.991243036 0.0
1.988833552 4.02277873 0.0
0.9975775937 4.023881501 0.0
3.617038676 4.849608462 0.0
2.418990813 4.876683354 0.0
1.212211448 4.877621138 0.0
4.264141279 5.707965406 0.0
2.849139157 5.730570747 0.0
1.426838586 5.731351984 0.0
4.911241688 6.566313869 0.0
3.279278601 6.584440909 0.0
1.641459013 6.585074037 0.0
5.558339907 7.42465385 0.0
3.709409163 7.438293843 0.0
1.856072733 7.4387873 0.0
6.20543594 8.282985351 0.0
4.139530861 8.292129549 0.0
2.070679751 8.292491772 0.0
6.852529792 9.141308371 0.0
4.569643712 9.145948028 0.0
2.285280071 9.146187454 0.0
0.0 9.141835361 0.0
0.0 8.283670722 0.0
0.0 7.425506084 0.0
0.0 6.567341445 0.0
0.0 5.709176806 0.0
0.0 4.851012167 0.0
0.0 3.992847528 0.0
0.0 3.179835612 0.0
0.0 2.448142384 0.0
0.0 1.811402201 0.0
2.5 10.0 0.0
5.0 10.0 0.0
7.5 10.0 0.0
0.69308995 1.040253008 0.0
0.4753031315 1.15610853 0.0
0.2422440273 1.226302504 0.0

CELLS 92 452
4 61 62 105 0 
4 60 65 62 61 
4 59 68 65 60 
4 58 71 68 59 
4 57 74 71 58 
4 56 77 74 57 
4 55 80 77 56 
4 54 83 80 55 
4 53 86 83 54 
4 52 89 86 53 
4 2 104 89 52 
4 62 63 106 105 
4 65 66 63 62 
4 68 69 66 65 
4 71 72 69 68 
4 74 75 72 71 
4 77 78 75 74 
4 80 81 78 77 
4 83 84 81 80 
4 86 87 84 83 
4 89 90 87 86 
4 104 103 90 89 
4 63 64 107 106 
4 66 67 64 63 
4 69 70 67 66 
4 72 73 70 69 
4 75 76 73 72 
4 78 79 76 75 
4 81 82 79 78 
4 84 85 82 81 
4 87 88 85 84 
4 90 91 88 87 
4 103 102 91 90 
4 64 101 1 107 
4 67 100 101 64 
4 70 99 100 67 
4 73 98 99 70 
4 76 97 98 73 
4 79 96 97 76 
4 82 95 96 79 
4 85 94 95 82 
4 88 93 94 85 
4 91 92 93 88 
4 102 3 92 91 
4 39 6 49 4 
4 40 9 6 39 
4 41 12 9 40 
4 42 15 12 41 
4 43 18 15 42 
4 44 21 18 43 
4 45 24 21 44 
4 46 27 24 45 
4 47 30 27 46 
4 48 33 30 47 
4 5 38 33 48 
4 6 7 50 49 
4 9 10 7 6 
4 12 13 10 9 
4 15 16 13 12 
4 18 19 16 15 
4 21 22 19 18 
4 24 25 22 21 
4 27 28 25 24 
4 30 31 28 27 
4 33 34 31 30 
4 38 37 34 33 
4 7 8 51 50 
4 10 11 8 7 
4 13 14 11 10 
4 16 17 14 13 
4 19 20 17 16 
4 22 23 20 19 
4 25 26 23 22 
4 28 29 26 25 
4 31 32 29 28 
4 34 35 32 31 
4 37 36 35 34 
4 8 61 0 51 
4 11 60 61 8 
4 14 59 60 11 
4 17 58 59 14 
4 20 57 58 17 
4 23 56 57 20 
4 26 55 56 23 
4 29 54 55 26 
4 32 53 54 29 
4 35 52 53 32 
4 36 2 52 35 
2 5 38 
2 38 37 
2 37 36 
2 36 2 

CELL_TYPES 92
9
9
9
9
9
9
9
9
9
9
9
9
9
9
9
9
9
9
9
9
9
9
9
9
9
9
9
9
9
9
9
9
9
9
9
9
9
9
9
9
9
9
9
9
9
9
9
9
9
9
9
9
9
9
9
9
9
9
9
9
9
9
9
9
9
9
9
9
9
9
9
9
9
9
9
9
9
9
9
9
9
9
9
9
9
9
9
9
3
3
3
3

POINT_DATA 108
Vectors Deplacement_u_v_(mm) float
-0.00038096859890487613 9.852879678075165e-05 0.0
0.0 0.00016101510370611932 0.0
-0.0030220380558274103 0.0024120579040212064 0.0
0.0 0.0008912696982470543 0.0
-0.0005560519298103768 0.0 0.0
-0.0020530253808852435 0.0 0.0
-0.0005570579800484978 8.977422852506423e-06 0.0
-0.0005024250879134348 2.6552434857849232e-05 0.0
-0.000429853859345933 5.518584570040728e-05 0.0
-0.0005962848183647253 2.0077517755221117e-05 0.0
-0.000546769846854221 5.306160988979494e-05 0.0
-0.0004888406691311725 9.895730219447013e-05 0.0
-0.0006726972088022383 4.357501123714186e-05 0.0
-0.0006389798628873669 0.00010102940643083685 0.0
-0.0006062859915139598 0.00016952075844122594 0.0
-0.0007801272119163153 7.607161313222659e-05 0.0
-0.0007658704008777295 0.00016505604563695457 0.0
-0.0007603142374544962 0.0002632209799152824 0.0
-0.0009108427800621706 0.00011900462631813077 0.0
-0.000918251366808124 0.00024907568899961693 0.0
-0.0009432819386486083 0.0003859072732914008 0.0
-0.001058159731129303 0.00017534001248252466 0.0
-0.0010911408106290155 0.0003590436139165067 0.0
-0.0011522875597419504 0.0005448647180532661 0.0
-0.0012224592196078297 0.0002499420040236738 0.0
-0.0012848339393968663 0.0005027698143695455 0.0
-0.001386467904597628 0.0007477966908445563 0.0
-0.0014057842912915343 0.0003496263848162368 0.0
-0.001499768941022572 0.0006896678373320969 0.0
-0.0016434889854009987 0.0010017005653085624 0.0
-0.0016113405073112893 0.0004848366749296865 0.0
-0.001735178374843876 0.0009303726321907794 0.0
-0.0019188741875321431 0.0013109185445786635 0.0
-0.0018426309486846062 0.0006742091814791448 0.0
-0.0019871986399332344 0.0012330125732886242 0.0
-0.0022065370097602514 0.001675572645039316 0.0
-0.0025036641066981218 0.002105958041063842 0.0
-0.002246468632773329 0.0015815592139835498 0.0
-0.002099590294661665 0.0009604782667978873 0.0
-0.0005778094087089108 0.0 0.0
-0.0006158690317114329 0.0 0.0
-0.000685467718919586 0.0 0.0
-0.0007847440814687978 0.0 0.0
-0.0009073126379093615 0.0 0.0
-0.0010450945549053104 0.0 0.0
-0.0011980034802937345 0.0 0.0
-0.0013681112736227755 0.0 0.0
-0.0015598544137153743 0.0 0.0
-0.0017817667132361268 0.0 0.0
-0.0005431474571042145 2.7116884052491036e-05 0.0
-0.0005063601932125148 5.334725230720688e-05 0.0
-0.0004506372632228115 7.75981957330099e-05 0.0
-0.0026121091109239953 0.0020036268025933604 0.0
-0.002221114762978146 0.0016173830102300885 0.0
-0.0018623061559266873 0.0012720190654794848 0.0
-0.0015369588612313366 0.0009734362910256949 0.0
-0.001246010960259528 0.0007236995142932994 0.0
-0.0009902480403972285 0.0005214585699415018 0.0
-0.0007696880320311799 0.00036242990310985843 0.0
-0.0005838092206790075 0.0002403037690959531 0.0
-0.00043733999698046896 0.00015012142402470312 0.0
-0.0003513502174148291 9.355323462163578e-05 0.0
-0.0002642160834403976 0.0001319800624930319 0.0
-0.00017483714093672082 0.0001712949992610214 0.0
-8.660672083332687e-05 0.00020276718659491077 0.0
-0.0003290622938816559 0.0001710546420411967 0.0
-0.00021591361977343237 0.00020111659848124047 0.0
-0.00010552975988559589 0.0002301665563785492 0.0
-0.0004391359685638219 0.0002383755952969536 0.0
-0.00028917453254651915 0.0002495327185262878 0.0
-0.00014155215384696268 0.0002675130917839995 0.0
-0.0005772045806907235 0.00032791128147016327 0.0
-0.0003809686520569092 0.000315152066897236 0.0
-0.00018731533541338857 0.00031789124617053236 0.0
-0.0007410806185127692 0.0004395760976205085 0.0
-0.0004900828263933658 0.00039544138973192247 0.0
-0.00024202001639558345 0.00037978002389866606 0.0
-0.0009319536113921669 0.0005743704376408871 0.0
-0.0006175680643132854 0.0004886754843257455 0.0
-0.00030604961178098077 0.0004507007778433714 0.0
-0.0011513996107935889 0.0007337107928706845 0.0
-0.0007649290895642237 0.0005949869050286082 0.0
-0.00038022001474986774 0.0005306880831801688 0.0
-0.0014013126617465812 0.0009181314909201939 0.0
-0.0009337519272818377 0.0007143985733315387 0.0
-0.0004651397908190993 0.0006199765441213151 0.0
-0.0016849051700172791 0.0011272187505151638 0.0
-0.001125630273000188 0.0008470298695246582 0.0
-0.0005606489367268467 0.0007188968255916243 0.0
-0.002009794269865204 0.001359655794305537 0.0
-0.00134200772117268 0.0009937903423138275 0.0
-0.0006649635667123919 0.0008277944226490056 0.0
0.0 0.0007834778267270358 0.0
0.0 0.000683879458895887 0.0
0.0 0.0005934301010950172 0.0
0.0 0.0005122342518802946 0.0
0.0 0.0004398989691199294 0.0
0.0 0.00037599158591984606 0.0
0.0 0.00032038856805268124 0.0
0.0 0.00027578452580683167 0.0
0.0 0.00024257344007326895 0.0
0.0 0.00021519305304700356 0.0
-0.0007741979568464401 0.000946607684871227 0.0
-0.0015818001362337343 0.0011580971579142284 0.0
-0.0023971370294013786 0.0016133294490224823 0.0
-0.00030200977936706595 0.00012122523145397288 0.0
-0.00020825074300931336 0.0001417051345674614 0.0
-0.00010647661944846706 0.0001558402101743274 0.0
Scalars SigmaX(MPa) float
LOOKUP_TABLE default
-37.68486527891867
-99.85114573118832
-51.12631334167447
-67.9486124794422
3.510875422940006
-40.65935663187216
-13.201543312871898
-22.29388493068247
-31.416106026653747
-20.898101864264337
-29.554909650305536
-36.63706401613559
-26.681868718800285
-32.87980242487484
-37.59035643370999
-29.895051945701457
-34.8664518686602
-38.89616010916558
-32.04213375989445
-36.41254571110889
-40.451353209571735
-33.77301725069511
-38.06927251461658
-42.25785216901006
-35.445470578768564
-39.96899911784056
-44.03526201860751
-37.412577412098486
-42.15726864988315
-45.468880136401125
-39.64113316580352
-44.61026027184675
-45.904393196209426
-43.095327599471624
-46.44000723303425
-45.698392081832786
-43.97175511360011
-47.36611171829838
-43.90804421011005
-9.200404316737231
-16.624470911884305
-23.276046669490356
-27.204165763239928
-29.779733041679705
-31.66037850136441
-33.20234525430661
-35.17676076551997
-36.66031287923343
-43.28948179263866
0.42241036746454413
-8.87855034813684
-22.191811187247392
-54.27063296262369
-53.85795347642445
-51.73294141732546
-49.32223518984755
-46.81409691878033
-44.439614760969704
-42.50490458260982
-41.04973507510558
-41.904969039556214
-39.996227518312914
-42.969028273187064
-46.99828510426167
-49.697153947193954
-43.139797630035204
-45.02492611697345
-44.93218924511837
-41.85252704207783
-43.03875703304971
-42.734647572484654
-43.200086119728816
-43.89131327216581
-43.58673730553463
-45.33029921960619
-45.793446662075624
-45.60796814930937
-48.10126916434922
-48.48372944511616
-48.46099829906398
-51.21581576546975
-51.74842102067459
-51.8930073275518
-54.498176893998895
-55.51106264340782
-55.78136889769572
-57.847261325111994
-60.08466737762153
-60.096056915144516
-61.06984792426606
-65.2830240728681
-64.54236186053146
-63.83143551274119
-59.87796745085138
-55.726281077080266
-51.83397023411428
-48.34475881727679
-45.42424303839217
-43.318354816577425
-42.39792114930461
-44.664011686914534
-50.56345253917435
-69.33696917487539
-74.68606909459363
-64.60740883306642
-55.389343778014606
-76.53641771441123
-93.20202315361867
Scalars SigmaY(MPa) float
LOOKUP_TABLE default
-6.017397655008192
-17.640321897469573
3.3367862220384326
-0.5754089956268422
23.84702183894565
75.15461768418609
0.8128111796684903
2.731925935141542
4.596613633857761
1.184328794503533
3.963967522381989
5.028113506496861
2.5624078231969554
4.577881490274918
4.908609012470403
5.230531685722295
6.512894327012312
6.347968785426717
8.760895772401462
9.346952544386278
8.42157636750423
13.163951418673616
12.91431451583636
10.812529965805245
18.565011470049807
17.044615157376292
13.137506466537353
25.08855307746368
21.476308111537097
15.008863839706445
32.989923781794104
25.62375136097686
16.09385414713377
41.68470167209075
28.559907904025124
16.267465731985816
17.25214262424201
28.986448994298186
50.21506741084177
-0.21083877152048638
-0.21401514304570982
1.5196394669166329
4.566275263469067
8.444821735128032
13.22228469416288
19.208987034596014
26.619342115062747
36.69611739016713
48.96459157283168
20.040102796824772
11.094415768540802
1.1361309784649374
8.793551372947086
10.990606364205474
11.623050778646974
11.173471706368385
9.746898029312604
7.846059014030655
5.990408134616747
4.607260886172224
4.651238388437726
5.02694180472497
2.827608220906076
-1.3911417135090567
-6.159927890630203
2.2324290059381102
-2.2403146634039564
-8.056999344021559
2.3677801222333508
-0.6016459601801175
-4.876280886550767
2.3897525299097584
-0.12419175729170659
-3.621962219953809
2.6282602147009397
0.34371330292377844
-2.6594942421770953
2.6932401971269098
0.705156366377401
-2.0139512685880483
2.4461069376202564
0.8997209066262771
-1.5085755016105882
1.8687570122757804
0.9988081411758627
-1.0453509992010175
0.7636815408336676
0.6236013390052552
-0.7116831191037829
-0.12075954265760504
1.3901938007040464
-0.06696063908061069
-0.1678544381112665
-0.9794532135208079
-1.5976070568680907
-2.3448204786923976
-3.134526706583578
-4.095276170959641
-5.4740530349223935
-7.250561233196184
-10.984683936859422
-8.357821779526894
-0.8937609140175495
-1.38682812423933
-2.9684641408581496
-10.747020616027093
-15.11099269965999
-17.250872045392196
Scalars Sigmaxy(MPa) float
LOOKUP_TABLE default
13.963571149442286
-0.5155284985278328
9.437194750210846
0.7984400283684101
2.228731472812844
-1.4178758333289234
5.762740045746091
9.679145032021905
8.961044487039867
5.453146218603499
7.860545969040229
5.738053003464628
3.77918455899819
4.933578246516991
3.267224373128004
2.79548208021671
3.590359904140995
2.598025722405585
2.3271553715289395
3.132026577979307
2.7695528627017865
2.384982750100614
3.5071342376048884
3.7786840700702498
2.8999798781675743
4.761985394260838
5.591448612684819
4.3032057331527005
7.0973367007674035
8.343749411931075
6.272616450535398
10.878156438699833
11.294666937066577
13.036955892826713
15.320620305306372
15.866964740261569
18.349299585067218
17.308330428289317
18.837391934494818
2.4366730301288735
1.75219278576011
1.0849866947292888
0.5450888669129155
0.11609374102670794
-0.24065213190008108
-0.5780140033544592
-0.9164934711007703
-1.252486484058995
-1.510152118178795
1.381135369415874
5.482656406394549
9.459875387175789
8.89964131722615
7.87291416794574
6.314729840718755
4.637305985296009
3.1871942728392706
2.161213916811573
1.6466215545310396
1.7996594747313857
2.8025410673648534
6.665751841516654
4.140550899352152
1.6697132158493193
0.5993680883446877
0.23794484729322707
-2.0449855799742735
-1.9522577847385938
0.4521430394473899
-1.3370763057226815
-1.545979681719066
0.4815426110113213
-1.0081055293782666
-1.2395800049177899
0.874104783814797
-0.7084952916528364
-1.0180308960378797
1.4116207338409401
-0.5551770842688073
-0.9612876710347865
2.1048820411837497
-0.482631271711298
-1.0131317163758835
2.665711339210272
-0.5111882296007176
-1.1292581848200485
3.20248982315651
-0.5404113764964766
-1.1983090623509745
1.3848845224838908
-0.6996935230188847
-0.9977506647715781
0.6915414852437972
0.6026227584168923
0.4966055206000982
0.3628918250112832
0.19087596990550346
-0.02835795180413118
-0.321363149070551
-0.6970787295311793
-1.1490709066625178
-1.4202443739086261
-0.38591676383333456
0.7969949764815675
0.5179305125533001
17.323273135003618
16.380463794953002
10.404378158044324
