# vtk DataFile Version 1.0
PlaneStress Mesh SYS807
ASCII
DATASET UNSTRUCTURED_GRID
POINTS 108 float
0.8838834765 0.8838834765 0.0
0.0 1.25 0.0
10.0 10.0 0.0
0.0 10.0 0.0
1.25 0.0 0.0
10.0 0.0 0.0
1.792475408 0.3936180987 0.0
1.728530661 0.7782780025 0.0
1.624189806 1.142990169 0.0
2.449127443 0.5757789708 0.0
2.4083364 1.143186977 0.0
2.330283953 1.692171826 0.0
3.204187677 0.7856590603 0.0
3.190568181 1.563628588 0.0
3.143331186 2.324947428 0.0
4.024367278 1.000034694 0.0
4.022266179 1.993253186 0.0
3.99061561 2.971823822 0.0
4.878057059 1.214278372 0.0
4.876190712 2.422727546 0.0
4.849044842 3.618645899 0.0
5.73175512 1.428528325 0.0
5.73013147 2.852210103 0.0
5.707482064 4.265469998 0.0
6.585461461 1.642784556 0.0
6.584088454 3.281700874 0.0
6.565927274 4.912296123 0.0
7.439176082 1.857047071 0.0
7.438061665 3.711199874 0.0
7.424380474 5.559124276 0.0
8.292898984 2.071315872 0.0
8.292051103 4.140707118 0.0
8.282841663 6.205954464 0.0
9.146540132 2.285591231 0.0
9.145996908 4.570222914 0.0
9.141280829 6.852786806 0.0
10.0 7.5 0.0
10.0 5.0 0.0
10.0 2.5 0.0
1.811768335 0.0 0.0
2.448658408 0.0 0.0
3.180440941 0.0 0.0
3.993513031 0.0 0.0
4.85167767 0.0 0.0
5.709842309 0.0 0.0
6.568006947 0.0 0.0
7.426171586 0.0 0.0
8.284336225 0.0 0.0
9.142379863 0.0 0.0
1.225677327 0.2453876321 0.0
1.153655856 0.4812256913 0.0
1.038472415 0.6957550173 0.0
9.132850706 9.132850706 0.0
8.266207799 8.266207799 0.0
7.399564893 7.399564893 0.0
6.532921986 6.532921986 0.0
5.66627908 5.66627908 0.0
4.799636173 4.799636173 0.0
3.932993267 3.932993267 0.0
3.066350361 3.066350361 0.0
2.218709885 2.218709885 0.0
1.483051776 1.483051776 0.0
1.140488995 1.625721924 0.0
0.7726983393 1.730559593 0.0
0.3906461166 1.792745591 0.0
1.689831868 2.33144854 0.0
1.137865478 2.40971841 0.0
0.5728936798 2.449044012 0.0
2.322803018 3.144132202 0.0
1.558642803 3.191322807 0.0
0.7829014948 3.203796494 0.0
2.969933875 3.991243036 0.0
1.988833552 4.02277873 0.0
0.9975775937 4.023881501 0.0
3.617038676 4.849608462 0.0
2.418990813 4.876683354 0.0
1.212211448 4.877621138 0.0
4.264141279 5.707965406 0.0
2.849139157 5.730570747 0.0
1.426838586 5.731351984 0.0
4.911241688 6.566313869 0.0
3.279278601 6.584440909 0.0
1.641459013 6.585074037 0.0
5.558339907 7.42465385 0.0
3.709409163 7.438293843 0.0
1.856072733 7.4387873 0.0
6.20543594 8.282985351 0.0
4.139530861 8.292129549 0.0
2.070679751 8.292491772 0.0
6.852529792 9.141308371 0.0
4.569643712 9.145948028 0.0
2.285280071 9.146187454 0.0
0.0 9.141835361 0.0
0.0 8.283670722 0.0
0.0 7.425506084 0.0
0.0 6.567341445 0.0
0.0 5.709176806 0.0
0.0 4.851012167 0.0
0.0 3.992847528 0.0
0.0 3.179835612 0.0
0.0 2.448142384 0.0
0.0 1.811402201 0.0
2.5 10.0 0.0
5.0 10.0 0.0
7.5 10.0 0.0
0.69308995 1.040253008 0.0
0.4753031315 1.15610853 0.0
0.2422440273 1.226302504 0.0

CELLS 92 452
4 61 62 105 0 
4 60 65 62 61 
4 59 68 65 60 
4 58 71 68 59 
4 57 74 71 58 
4 56 77 74 57 
4 55 80 77 56 
4 54 83 80 55 
4 53 86 83 54 
4 52 89 86 53 
4 2 104 89 52 
4 62 63 106 105 
4 65 66 63 62 
4 68 69 66 65 
4 71 72 69 68 
4 74 75 72 71 
4 77 78 75 74 
4 80 81 78 77 
4 83 84 81 80 
4 86 87 84 83 
4 89 90 87 86 
4 104 103 90 89 
4 63 64 107 106 
4 66 67 64 63 
4 69 70 67 66 
4 72 73 70 69 
4 75 76 73 72 
4 78 79 76 75 
4 81 82 79 78 
4 84 85 82 81 
4 87 88 85 84 
4 90 91 88 87 
4 103 102 91 90 
4 64 101 1 107 
4 67 100 101 64 
4 70 99 100 67 
4 73 98 99 70 
4 76 97 98 73 
4 79 96 97 76 
4 82 95 96 79 
4 85 94 95 82 
4 88 93 94 85 
4 91 92 93 88 
4 102 3 92 91 
4 39 6 49 4 
4 40 9 6 39 
4 41 12 9 40 
4 42 15 12 41 
4 43 18 15 42 
4 44 21 18 43 
4 45 24 21 44 
4 46 27 24 45 
4 47 30 27 46 
4 48 33 30 47 
4 5 38 33 48 
4 6 7 50 49 
4 9 10 7 6 
4 12 13 10 9 
4 15 16 13 12 
4 18 19 16 15 
4 21 22 19 18 
4 24 25 22 21 
4 27 28 25 24 
4 30 31 28 27 
4 33 34 31 30 
4 38 37 34 33 
4 7 8 51 50 
4 10 11 8 7 
4 13 14 11 10 
4 16 17 14 13 
4 19 20 17 16 
4 22 23 20 19 
4 25 26 23 22 
4 28 29 26 25 
4 31 32 29 28 
4 34 35 32 31 
4 37 36 35 34 
4 8 61 0 51 
4 11 60 61 8 
4 14 59 60 11 
4 17 58 59 14 
4 20 57 58 17 
4 23 56 57 20 
4 26 55 56 23 
4 29 54 55 26 
4 32 53 54 29 
4 35 52 53 32 
4 36 2 52 35 
2 5 38 
2 38 37 
2 37 36 
2 36 2 

CELL_TYPES 92
9
9
9
9
9
9
9
9
9
9
9
9
9
9
9
9
9
9
9
9
9
9
9
9
9
9
9
9
9
9
9
9
9
9
9
9
9
9
9
9
9
9
9
9
9
9
9
9
9
9
9
9
9
9
9
9
9
9
9
9
9
9
9
9
9
9
9
9
9
9
9
9
9
9
9
9
9
9
9
9
9
9
9
9
9
9
9
9
3
3
3
3

POINT_DATA 108
Vectors Deplacement_u_v_(mm) float
-0.001488901938395393 0.0 0.0
-0.0020235259054015185 -0.0005446034749645917 0.0
-0.008392605279345617 0.0 0.0
-0.008001641782464021 -8.697013830525042e-05 0.0
0.0 -0.00022870409324379906 0.0
0.0 0.007570255553881353 0.0
-0.0006678982401749378 0.00035086888469316064 0.0
-0.0012547532357965723 0.0003011502660337473 0.0
-0.0017268961272030254 0.00024583049684739265 0.0
-0.0008602044134784258 0.0007482775914725952 0.0
-0.0016301675008811134 0.0006998967115054261 0.0
-0.002298051243763028 0.0006499282999058039 0.0
-0.0010959387813332363 0.0011510572517089417 0.0
-0.002100200560212916 0.0011195243961217025 0.0
-0.00299020488120939 0.0010855168289136212 0.0
-0.0013600592817302202 0.00159054705286263 0.0
-0.002617597926691343 0.001568411593823957 0.0
-0.003729924674863662 0.0015442306137355445 0.0
-0.001652744369686766 0.002079544991749909 0.0
-0.0031755923945285466 0.002056660952748153 0.0
-0.0045001665827078905 0.0020307506326744064 0.0
-0.0019764137840528203 0.00262312677736492 0.0
-0.003772117722032901 0.002584048495531044 0.0
-0.0052893630282323315 0.0025323285076696298 0.0
-0.002331332680602231 0.0032437327883289894 0.0
-0.004397518137837452 0.003154681176156213 0.0
-0.006078162645124803 0.0030208260506606036 0.0
-0.0027164217714220535 0.003967087389027954 0.0
-0.005032806064878248 0.0037684747341645564 0.0
-0.006834604587629515 0.0034445652701214796 0.0
-0.003128813422496432 0.004823068866863046 0.0
-0.005647637285824553 0.004422724439199755 0.0
-0.007508257649173944 0.0037333583276928364 0.0
-0.0035616879518699748 0.0058415781558933365 0.0
-0.006202670648255076 0.005109325018982701 0.0
-0.008026156326556419 0.003831729535750265 0.0
-0.00829331565837666 0.003825653783264124 0.0
-0.006665767032145594 0.00578583646665208 0.0
-0.0039951047285264754 0.007044049521264377 0.0
0.0 0.0003697762024182386 0.0
0.0 0.0007643817761243043 0.0
0.0 0.0011541474403149888 0.0
0.0 0.0015865009542209763 0.0
0.0 0.002075886096300206 0.0
0.0 0.0026249111962090717 0.0
0.0 0.0032615509893197856 0.0
0.0 0.004019544259310714 0.0
0.0 0.0049422484441249154 0.0
0.0 0.006091752648886422 0.0
-0.000464172035629441 -0.00021692997280229158 0.0
-0.0008923287352552507 -0.00018179943751508112 0.0
-0.0012469886782336523 -0.00011914044823701283 0.0
-0.008658288329493898 0.0020393203904932092 0.0
-0.008490134957570878 0.002929834013191205 0.0
-0.007996072793643099 0.003121138043386265 0.0
-0.007296238204016832 0.002905965110506437 0.0
-0.006481513852209098 0.002493524841504378 0.0
-0.005604027536673336 0.0020112874377706705 0.0
-0.004693892086740805 0.0015241245443057124 0.0
-0.0037739974347587597 0.0010541753798946744 0.0
-0.002885070884658045 0.0006052317056987305 0.0
-0.002125868424905418 0.00018589975600534763 0.0
-0.0023036888841953735 8.174063959364594e-05 0.0
-0.0024474258738534627 -5.470972597489847e-05 0.0
-0.0025372856610049945 -0.00018303876489097625 0.0
-0.003014602796957463 0.00035586197108922955 0.0
-0.003102904926723891 0.000146859431742601 0.0
-0.0031534700678408846 -3.4299412403644564e-05 0.0
-0.003825975431169149 0.000690489419344069 0.0
-0.003843453445492166 0.00036568247134479256 0.0
-0.0038121556638363507 0.00012293241667985183 0.0
-0.0046634076954758675 0.001027500950859465 0.0
-0.00462452047042346 0.0005854047392796928 0.0
-0.004567959475421026 0.00023986792229310338 0.0
-0.0054799592088396 0.0013726923191397361 0.0
-0.005390252990004192 0.0007895852311020155 0.0
-0.005321098126662927 0.00033093557006290614 0.0
-0.006241933063310917 0.001737142714449665 0.0
-0.006091756726390382 0.0009843724960708496 0.0
-0.006017982502957147 0.00039029867927544765 0.0
-0.0069339564363981 0.0021278547804275357 0.0
-0.006711022297736407 0.0011817115702219933 0.0
-0.006644733418561165 0.0004052171963890534 0.0
-0.007546797996810432 0.002538637906755112 0.0
-0.0072417806839705536 0.001403856267372202 0.0
-0.007193091033482532 0.0003560873683033523 0.0
-0.008057657704779585 0.0029339368983577817 0.0
-0.007705483704452791 0.0016865557387556619 0.0
-0.007664284039468391 0.0002222281875198136 0.0
-0.008343303802927733 0.0032240836802163554 0.0
-0.008188188459707106 0.0020677698649911066 0.0
-0.008098741820615946 0.0 0.0
-0.00794667723485176 0.0 0.0
-0.0076819701652353235 0.0 0.0
-0.007205899605360187 0.0 0.0
-0.006628547675946231 0.0 0.0
-0.005980335614109458 0.0 0.0
-0.00527154733843853 0.0 0.0
-0.004511203824430461 0.0 0.0
-0.0037638937177371444 0.0 0.0
-0.00311197374691599 0.0 0.0
-0.0025451728425754 -0.0004478833731210181 0.0
-0.008555434214481308 0.00023076329305707024 0.0
-0.008799421226025004 0.0023572656019764412 0.0
-0.00804331585508535 0.0033385990711470755 0.0
-0.0017586779660709161 -0.00013583642335075971 0.0
-0.001922886848815387 -0.00022707036326779928 0.0
-0.0020017425298217693 -0.00035289037596736604 0.0
Scalars SigmaX(MPa) float
LOOKUP_TABLE default
47.00906933311262
-9.685281418447943
-83.09119214131833
-53.70062995319355
6.458658868026293
-3.301964421804897
26.935847154734397
34.27117203580724
24.21151207155957
21.017795683348588
24.282536380880323
15.53484317490551
9.061294962585619
7.045462953263213
-1.748039166729531
0.8474683480045357
-4.663288932169696
-16.322831845357154
-6.771269929033762
-16.34497935739383
-31.06290641817958
-14.187524858631033
-27.368112321253186
-44.52448187210258
-21.89527916087757
-37.266474787361105
-55.99044470512295
-30.048910184429356
-44.60252174572131
-61.59708589573782
-39.60788160060885
-48.585201010120635
-65.62660591625924
-47.46309904563267
-46.480327204788004
-42.08766738842692
-64.57801873347935
-52.0647122274326
-58.451397115302434
0.7658350004510617
0.048065365176848965
-0.014762667142184412
0.09405434891378406
0.2793955813336181
0.41653184545914057
0.4977141355509788
0.5264060824414497
0.509770306013272
-0.46401400778128604
35.754481000851385
72.38217860330505
74.87673688451622
-49.484487734015616
-51.20656292930519
-56.06270641791615
-51.95466285600107
-42.04498422728678
-30.089602666148874
-17.689527094787486
-5.340685698111034
10.998248091246595
19.234741038086995
23.89057219704207
29.12852544769334
13.744950942060452
6.704443053372388
12.009648354335095
7.405980927685165
-4.730880158074933
-5.5844797165320275
-2.9628186544036264
-16.35964568525374
-10.842930123676545
-6.253305041624933
-25.911705333015114
-15.266061565263705
-7.498075241365385
-34.87333619583723
-18.5395277730206
-8.272584084971045
-42.033686212527535
-20.88681471432786
-9.518087417271277
-45.55247152358713
-23.01878720820578
-9.49440051103191
-38.92734813837011
-19.083137958653644
-23.038866530865096
-20.67751635950146
-9.797450456104272
-21.771966200336976
-15.329845385817533
5.234769243397508
4.042805840932764
1.3972264168663406
-1.091974876973789
-3.047343518962917
-3.255837308608928
-9.697332715561094
2.5537073693001755
29.51436120713508
-32.20726385575278
29.325850018691252
51.09140267236453
64.28889814086533
30.312539058475874
12.227046051351003
Scalars SigmaY(MPa) float
LOOKUP_TABLE default
29.589747598058857
-23.83333802679671
-294.961138022622
-34.17901645640932
17.674709898864506
-28.229678616649128
3.8789698972352102
11.062721536375138
9.432585652947143
-2.113199516946443
0.102986295561552
6.7028440587631675
-2.7426937975864703
-2.7114869392039993
-0.34651583674511194
-3.4861080110708977
-4.739689040109387
-4.2914978548125475
-5.084426925108417
-8.071564676404803
-9.477738957474449
-8.157263855752046
-14.37406144730986
-17.354917116771247
-13.511127529756482
-25.448303439903906
-31.0962357646847
-21.944724320532018
-43.429547179275296
-53.48578474113481
-35.07437257581734
-69.11293148702329
-95.53141899709291
-53.75944174860607
-103.14927942800817
-146.88552879153383
-273.39349967746654
-127.86464489481537
-90.39218248058917
-1.8562643349611774
-4.594029484141787
-3.050184984798373
-1.928675237011772
-1.4086691872137491
-1.4956284990397313
-2.274606868878889
-4.008045649708148
-7.1675287180721865
-14.406063007020673
63.49845702204355
103.32915566074314
152.83451501257335
-202.80973494460827
-93.80669615381962
-54.23054986356281
-26.87646791238931
-13.806324553248293
-6.162729065722229
-1.0771935961947552
2.208110793154418
12.930977528629825
20.74555138959692
27.57842678653804
29.371754016042505
29.68862765586065
15.290215313009652
21.27714288473093
38.558584637834215
7.746905709276429
13.735382977108834
22.4368490687787
0.1441444061615461
6.633032991430054
8.234451682318037
-3.872946143597371
-1.7672910977350083
0.3795579572317156
-4.718260683681592
-9.143754157931461
-8.838874282276572
-0.08468015485603023
-14.379700534391352
-23.79439197966248
10.095717997936022
-18.34158353428145
-36.62971191952534
27.735151225412135
-4.9007383371923865
-85.02329257149707
37.204085966652855
-16.200965733938087
-35.19181958524182
-1.7882168454493779
11.621398401497807
4.430585724665147
2.6651471970225193
0.9686677356311802
-0.9207758082476498
3.2834734004041466
-15.823463206665718
72.52683228208664
133.85074692541622
51.03862261044246
-35.52526999814957
123.98686243292843
-6.39594355331566
30.07302410118181
29.616401232645647
Scalars Sigmaxy(MPa) float
LOOKUP_TABLE default
-86.16546577458767
-5.545168247138057
-75.65012664432277
-6.936671741236713
-51.09803176281376
5.00487503520997
-63.99060129733085
-51.64887668470659
-44.524252515907236
-67.80533481780826
-54.39829657128041
-46.478202504309344
-62.51666217793432
-52.3537458319978
-43.9780503292674
-59.184846827473834
-49.604305979750315
-39.35186586721176
-55.2501393361575
-45.47110622974616
-33.42831439691089
-50.40275131478274
-40.1195291328611
-27.282860456036847
-43.743781833279805
-33.08564873599949
-21.981791557590718
-34.00308369843287
-23.775890860486484
-18.145198995231908
-20.92626163385734
-11.318101557151863
-14.024961043701085
-1.362733692945693
2.9247574709275472
-3.087226981262355
42.97190809328484
13.33195122773549
15.221020638040645
-70.2677949122261
-75.56000206334855
-68.26978035739161
-64.13168730595338
-60.104298323210294
-55.61695875673785
-49.841313133554415
-41.24188062255469
-30.771099719344342
-7.982486301415802
-58.66530227762207
-71.01641094988636
-90.4201548660181
-61.426587118724875
-32.539045995659386
-21.038368747602206
-16.363727556838736
-19.39645488123122
-26.073809740414514
-33.514048102101434
-40.02521784078028
-42.07217201682838
-54.047306072571764
-51.89196079453269
-50.057607420902
-37.85790094892167
-45.22449287464832
-44.305213560627074
-57.225054901910966
-38.29155224021651
-41.255636970881056
-50.28144490856637
-32.39388012674555
-37.41191611655672
-47.475983039503696
-23.700664158699084
-29.80378366253217
-40.33126986613275
-13.68662680371983
-18.967484444804693
-33.559743810118974
-5.375779982797542
-5.076741597428008
-25.964470661248825
-0.40429099428402604
10.784053009317798
-17.155702470068643
-6.716682860440996
24.8723711479581
-7.751137777254303
8.307424275143466
23.530445571146526
0.5250187001934921
-31.955419471183244
-38.463709463105786
-40.786812454408285
-40.12848954696797
-42.434448519203826
-46.7759288223103
-53.5030476213238
-59.85576995691819
-80.77228126192138
-12.981732916251884
4.067608252252817
6.651168281467818
-10.59631387529387
-42.10044147620568
-40.75784891061235
-18.294643123675716
